18
 energy: -18.985247424178 gnorm: 0.025227499153 xtb: 6.4.0 (e5c5bef7e5b1162a99a623676313efed41398df0)
C        -0.76819000000000   -1.26726000000000    0.13424000000000
C         0.72062000000000   -1.27185000000000   -0.27610000000000
C         1.45510000000000   -0.04436000000000    0.30578000000000
C         0.76854000000000    1.26629000000000   -0.13599000000000
C        -0.71988000000000    1.27269000000000    0.27522000000000
C        -1.45607000000000    0.04448000000000   -0.30316000000000
H        -1.27769000000000   -2.11919000000000   -0.32187000000000
H         0.80063000000000   -1.26411000000000   -1.36607000000000
H         2.49529000000000   -0.04564000000000   -0.02835000000000
H        -1.19615000000000    2.18869000000000   -0.08220000000000
H        -1.46907000000000    0.10532000000000   -1.39441000000000
H         0.85013000000000    1.37563000000000   -1.22051000000000
H         1.19724000000000   -2.18831000000000    0.07974000000000
H        -0.84985000000000   -1.38002000000000    1.21829000000000
H        -2.49471000000000    0.04530000000000    0.03601000000000
H        -0.79892000000000    1.26764000000000    1.36550000000000
H         1.27889000000000    2.11954000000000    0.31699000000000
H         1.46265000000000   -0.10469000000000    1.39707000000000
18
 energy: -18.986595909271 gnorm: 0.006918380840 xtb: 6.4.0 (e5c5bef7e5b1162a99a623676313efed41398df0)
C        -0.76023974033380   -1.25388653207147    0.13509747744279
C         0.71308680628096   -1.25856590799028   -0.27500157101449
C         1.43992776763770   -0.04401680985151    0.30406432401635
C         0.76060460025547    1.25338987761287   -0.13617328531334
C        -0.71250499874014    1.25907816313822    0.27443285498511
C        -1.44059339161282    0.04411331191358   -0.30235478558578
H        -1.26992322368302   -2.10582570934075   -0.31976450557966
H         0.78628467897076   -1.23922874769026   -1.36439280113672
H         2.47970738555046   -0.04530384799223   -0.02970121072375
H        -1.18889203217217    2.17482334441382   -0.08194460564102
H        -1.43925706786151    0.10458386831904   -1.39274640991000
H         0.83492129554647    1.35126310050975   -1.22130526707599
H         1.18947617056961   -2.17483066529977    0.08006773460169
H        -0.83482895865151   -1.35460367287328    1.21992430319754
H        -2.47914251393773    0.04506462373296    0.03532979469981
H        -0.78510187226923    1.24177299302957    1.36397692131539
H         1.27067393135016    2.10646839046834    0.31624760209253
H         1.43436116310034   -0.10414578002862    1.39442342962954
18
 energy: -18.986693630801 gnorm: 0.001148767678 xtb: 6.4.0 (e5c5bef7e5b1162a99a623676313efed41398df0)
C        -0.75810676432805   -1.25012167003632    0.13641796745920
C         0.71088862792577   -1.25474530811201   -0.27562465026415
C         1.43564270199693   -0.04399318534630    0.30441083717359
C         0.75828104267858    1.24975709222895   -0.13714042688031
C        -0.71057913591136    1.25516268785812    0.27528463807560
C        -1.43606184256924    0.04406203953138   -0.30326133758498
H        -1.26999981335541   -2.10563286740612   -0.30965767140236
H         0.78075229870626   -1.22996104722579   -1.36535963761588
H         2.47812559040646   -0.04573890064581   -0.02129181419066
H        -1.18896298790025    2.17348105278878   -0.07220574522419
H        -1.42726398639730    0.10434140288894   -1.39383888245195
H         0.82917875425207    1.34246414416937   -1.22315047164992
H         1.18929592438163   -2.17336069688262    0.07099267908276
H        -0.82925381556591   -1.34467651499547    1.22225648047128
H        -2.47779604692362    0.04562219583887    0.02495579818758
H        -0.78012230075263    1.23164041584694    1.36508698215001
H         1.27040393473648    2.10592456775210    0.30735923525480
H         1.42413781861957   -0.10407540825302    1.39494601940959
18
 energy: -18.986713393521 gnorm: 0.001609673305 xtb: 6.4.0 (e5c5bef7e5b1162a99a623676313efed41398df0)
C        -0.75722413671018   -1.24827863051056    0.13910026210479
C         0.70982900979872   -1.25296241940810   -0.27766209039084
C         1.43352394277014   -0.04408629105189    0.30610262534569
C         0.75721944420927    1.24827949849675   -0.13922410758224
C        -0.70981512762319    1.25302616544128    0.27761178115594
C        -1.43378941817509    0.04411916858397   -0.30583990200895
H        -1.27151209353705   -2.10763842512534   -0.29755331180176
H         0.77627185205597   -1.22259454455315   -1.36815052417357
H         2.47892440241844   -0.04632549950791   -0.01119282377684
H        -1.19038158562800    2.17413734918495   -0.06037158245372
H        -1.41711355028443    0.10423297159608   -1.39701431063264
H         0.82465591074541    1.33582604095936   -1.22653875000341
H         1.19039687837936   -2.17416058503478    0.06003641182683
H        -0.82481571739222   -1.33638590815581    1.22639543850441
H        -2.47902617550369    0.04630893911215    0.01218544951498
H        -0.77622882575042    1.22300008154942    1.36811002565662
H         1.27155705582702    2.10779751269493    0.29695769232997
H         1.41608813439995   -0.10414542427134    1.39722771638473
18
 energy: -18.986715630123 gnorm: 0.000350372509 xtb: 6.4.0 (e5c5bef7e5b1162a99a623676313efed41398df0)
C        -0.75774857969525   -1.24910114381823    0.13891743254219
C         0.71021288358545   -1.25373568366482   -0.27757163666610
C         1.43450706264819   -0.04410835087580    0.30602407774862
C         0.75761477495304    1.24899363944644   -0.13905471777167
C        -0.71031984226747    1.25388537048724    0.27752899849555
C        -1.43464578990034    0.04413296648766   -0.30578405094316
H        -1.27191982815472   -2.10830400602567   -0.29778274896293
H         0.77637440062224   -1.22292481289105   -1.36790256038580
H         2.47968396466909   -0.04632980404729   -0.01160741881954
H        -1.19077588131746    2.17484369362162   -0.06055789125560
H        -1.41724819358591    0.10421470421985   -1.39676380714579
H         0.82479761419874    1.33615398760447   -1.22626921230510
H         1.19067863937571   -2.17472791189068    0.06037244025351
H        -0.82498580576553   -1.33656453148932    1.22610552437856
H        -2.47969499617261    0.04632639961890    0.01227413032431
H        -0.77642930383203    1.22326514995757    1.36786820641453
H         1.27182554693048    2.10828353148483    0.29738604143790
H         1.41663333370841   -0.10415319822571    1.39699719266052
