18
 energy: -18.986715630125 gnorm: 0.000350170445 xtb: 6.4.0 (e5c5bef7e5b1162a99a623676313efed41398df0)
C        -0.75774857969525   -1.24910114381823    0.13891743254219
C         0.71021288358545   -1.25373568366482   -0.27757163666610
C         1.43450706264819   -0.04410835087580    0.30602407774862
C         0.75761477495304    1.24899363944644   -0.13905471777167
C        -0.71031984226747    1.25388537048724    0.27752899849555
C        -1.43464578990034    0.04413296648766   -0.30578405094316
H        -1.27191982815472   -2.10830400602567   -0.29778274896293
H         0.77637440062224   -1.22292481289105   -1.36790256038580
H         2.47968396466909   -0.04632980404729   -0.01160741881954
H        -1.19077588131746    2.17484369362162   -0.06055789125560
H        -1.41724819358591    0.10421470421985   -1.39676380714579
H         0.82479761419874    1.33615398760447   -1.22626921230510
H         1.19067863937571   -2.17472791189068    0.06037244025351
H        -0.82498580576553   -1.33656453148932    1.22610552437856
H        -2.47969499617261    0.04632639961890    0.01227413032431
H        -0.77642930383203    1.22326514995757    1.36786820641453
H         1.27182554693048    2.10828353148483    0.29738604143790
H         1.41663333370841   -0.10415319822571    1.39699719266052
