   6
Energy -155.034287000
C   -0.662958000000  -0.000000000000  -0.000000000000
C    0.662958000000  -0.000000000000  -0.000000000000
H   -1.256543000000   0.924038000000   0.000000000000
H    1.256543000000  -0.924038000000   0.000000000000
Cl  -1.614245685000  -1.480760530000  -0.000000000000
Cl   1.614245685000   1.480760530000  -0.000000000000
