   3
Energy -155.034287000
O   -0.000000000000   0.000000000000   0.369372920242
H    0.783975894635   0.000000000000  -0.184686460120
H   -0.783975894635   0.000000000000  -0.184686460120
