    4
Energy -155.034287000
  N       0.000000       0.000000      0.059658
  H       0.475176      -0.823029     -0.276342
  H       0.475176       0.823029     -0.276342
  H      -0.950352       0.000000     -0.276342

