      7
Energy -680.376747000
C    0.000000  0.000000   0.000000
C    0.686442  0.426   1.063
C     -0.686442  -0.426   -1.063
H   1.066  -0.431  1.617
H   0.680  1.515  1.086
H   -1.732  -0.559  -0.790
H   -0.014  -0.525  -1.913
