   6
Energy -155.034287000
C    0.668000000  -0.000000000000   0.000000000000
C   -0.665000000   0.000000000000   0.000000000000
H    1.243000380  -0.94037999484   0.000000000000
H   -1.23000380   0.924037999484   0.000000000000
H    1.2543000380   0.937999484  -0.000000000000
H   -1.26543000380  -0.94999484  -0.000000000000
