      21
Energy -680.376747000
  C      -0.116957       1.196724      2.324054
  C      -1.174294       0.258575      2.324054
  C      -0.608796      -1.036915      2.324054
  C       0.798037      -0.899424      2.324054
  C       1.102010       0.481041      2.324054
  H      -0.221353       2.266536      2.385829
  H      -2.224006       0.489879      2.385829
  H      -1.153158      -1.963774      2.385829
  H       1.511315      -1.703558      2.385829
  H       2.087202       0.910918      2.385829
 Fe       0.000000      -0.000000     -0.000000
  C       1.102010      -0.481041     -2.324054
  C      -0.116957      -1.196724     -2.324054
  C       0.798037       0.899424     -2.324054
  C      -1.174294      -0.258575     -2.324054
  C      -0.608796       1.036915     -2.324054
  H       1.511315       1.703558     -2.385829
  H      -2.224006      -0.489879     -2.385829
  H      -1.153158       1.963774     -2.385829
  H       2.087202      -0.910918     -2.385829
  H      -0.221353      -2.266536     -2.385829



