      21
Energy -680.376747000
  C      -1.188223       0.386077      2.369307
  C      -0.734362      -1.010762      2.369307
  C       0.734362      -1.010762      2.369307
  C       1.188223       0.386077      2.369307
  C       0.000000       1.249371      2.369307
  H      -2.222114       0.722009      2.369307
  H      -1.373342      -1.890243      2.369307
  H       1.373342      -1.890243      2.369307
  H       2.222114       0.722009      2.369307
  H       0.000000       2.336469      2.369307
 Fe       0.000000       0.000000      0.000000
  C       0.734362       1.010762     -2.369307
  C       1.188223      -0.386077     -2.369307
  C      -0.734362       1.010762     -2.369307
  C      -0.000000      -1.249371     -2.369307
  C      -1.188223      -0.386077     -2.369307
  H      -1.373342       1.890243     -2.369307
  H      -0.000000      -2.336469     -2.369307
  H      -2.222114      -0.722009     -2.369307
  H       1.373342       1.890243     -2.369307
  H       2.222114      -0.722009     -2.369307


rings:
1 2 3 4 5
12 13 14 15 16
